// -*- C++ -*-
// File generated by PyFoam - sorry for the ugliness

FoamFile
{
 version 2.0;
 format ascii;
 class volVectorField;
 object U;
}

dimensions [ 0 1 -1 0 0 0 0 ];

internalField uniform (15 0 0);

boundaryField
{
  xMin
  {
    type fixedValue;
    value $internalField;
  }
  xMax
  {
    type inletOutlet;
    inletValue uniform (0 0 0);
    value $internalField;
  }
  yMin
  {
    type slip;
  }
  yMax
  {
    type slip;
  }
  zMin
  {
    type slip;
  }
  zMax
  {
    type slip;
  }
  Aircraft
  {
    type fixedValue;
    value uniform (0 0 0);
  }
}

